   15
Geometry Step: 93
    C     -1.49367335      1.81340086     -0.84753615      4.23832165
    C     -0.89227970      0.44297617     -0.62067585      3.83207084
    O      0.42651974      0.58982134     -0.05574749      6.35385126
    C      1.08495486     -0.58683656      0.18041228      3.33445707
    O      0.57943473     -1.67416239     -0.07865260      6.53183990
    C      2.44134147     -0.38956285      0.76996616      4.15922236
    C      3.23620839     -1.41604327      1.08243657      4.16039648
    H     -1.57348201      2.36812699      0.08612934      0.92132374
    H     -0.88533528      2.40116214     -1.53313395      0.92138142
    H     -2.49151224      1.72675700     -1.27391413      0.93151318
    H     -0.81510382     -0.12305646     -1.56575600      0.95326988
    H     -1.51105485     -0.15760147      0.06943898      0.95415719
    H      2.76967684      0.63577336      0.94287035      0.91005289
    H      2.90911057     -2.43694454      0.91076792      0.88941141
    H      4.22117048     -1.27018862      1.51302765      0.90873072
