   19
Geometry Step: 178
    C     -3.75026247      0.26405616      0.29327939      4.16489161
    C     -3.17199575     -0.47699818     -0.65563885      4.15733881
    C     -1.69877061     -0.61837487     -0.82682280      3.32965443
    O     -1.17194824     -1.28273532     -1.70607440      6.50552269
    O     -0.96814372      0.05582801      0.13259993      6.32901222
    C      0.41759470      0.13234912      0.06328037      3.69574708
    C      1.10976357      0.25527977     -1.15155424      4.14518430
    C      2.49795135      0.38671641     -1.13286153      4.09320492
    C      3.19047837      0.40909253      0.07982580      3.89864143
    C      2.49675449      0.30721232      1.28746942      4.09451981
    C      1.10941772      0.17362169      1.28283453      4.15402782
   Br      5.07379564      0.58845429      0.08757835      7.10276026
    H     -3.15877441      0.81880062      1.01516563      0.89705760
    H     -4.82935280      0.33836147      0.37770159      0.90179293
    H     -3.78567428     -1.02385505     -1.37042392      0.89837386
    H      0.57965081      0.24674689     -2.09825894      0.89175063
    H      3.03713421      0.47689468     -2.07206419      0.91526095
    H      3.03107219      0.33284010      2.23324889      0.91610178
    H      0.56149495      0.09591607      2.21840937      0.90915689
